# vtk DataFile Version 3.0
#This file was generated by the deal.II library on 2021/8/11 at 23:49:42
ASCII
DATASET UNSTRUCTURED_GRID

POINTS 4096 double
0 0 0
0.03125 0 0
0 0.03125 0
0.03125 0.03125 0
0.03125 0 0
0.0625 0 0
0.03125 0.03125 0
0.0625 0.03125 0
0 0.03125 0
0.03125 0.03125 0
0 0.0625 0
0.03125 0.0625 0
0.03125 0.03125 0
0.0625 0.03125 0
0.03125 0.0625 0
0.0625 0.0625 0
0.0625 0 0
0.09375 0 0
0.0625 0.03125 0
0.09375 0.03125 0
0.09375 0 0
0.125 0 0
0.09375 0.03125 0
0.125 0.03125 0
0.0625 0.03125 0
0.09375 0.03125 0
0.0625 0.0625 0
0.09375 0.0625 0
0.09375 0.03125 0
0.125 0.03125 0
0.09375 0.0625 0
0.125 0.0625 0
0 0.0625 0
0.03125 0.0625 0
0 0.09375 0
0.03125 0.09375 0
0.03125 0.0625 0
0.0625 0.0625 0
0.03125 0.09375 0
0.0625 0.09375 0
0 0.09375 0
0.03125 0.09375 0
0 0.125 0
0.03125 0.125 0
0.03125 0.09375 0
0.0625 0.09375 0
0.03125 0.125 0
0.0625 0.125 0
0.0625 0.0625 0
0.09375 0.0625 0
0.0625 0.09375 0
0.09375 0.09375 0
0.09375 0.0625 0
0.125 0.0625 0
0.09375 0.09375 0
0.125 0.09375 0
0.0625 0.09375 0
0.09375 0.09375 0
0.0625 0.125 0
0.09375 0.125 0
0.09375 0.09375 0
0.125 0.09375 0
0.09375 0.125 0
0.125 0.125 0
0.125 0 0
0.15625 0 0
0.125 0.03125 0
0.15625 0.03125 0
0.15625 0 0
0.1875 0 0
0.15625 0.03125 0
0.1875 0.03125 0
0.125 0.03125 0
0.15625 0.03125 0
0.125 0.0625 0
0.15625 0.0625 0
0.15625 0.03125 0
0.1875 0.03125 0
0.15625 0.0625 0
0.1875 0.0625 0
0.1875 0 0
0.21875 0 0
0.1875 0.03125 0
0.21875 0.03125 0
0.21875 0 0
0.25 0 0
0.21875 0.03125 0
0.25 0.03125 0
0.1875 0.03125 0
0.21875 0.03125 0
0.1875 0.0625 0
0.21875 0.0625 0
0.21875 0.03125 0
0.25 0.03125 0
0.21875 0.0625 0
0.25 0.0625 0
0.125 0.0625 0
0.15625 0.0625 0
0.125 0.09375 0
0.15625 0.09375 0
0.15625 0.0625 0
0.1875 0.0625 0
0.15625 0.09375 0
0.1875 0.09375 0
0.125 0.09375 0
0.15625 0.09375 0
0.125 0.125 0
0.15625 0.125 0
0.15625 0.09375 0
0.1875 0.09375 0
0.15625 0.125 0
0.1875 0.125 0
0.1875 0.0625 0
0.21875 0.0625 0
0.1875 0.09375 0
0.21875 0.09375 0
0.21875 0.0625 0
0.25 0.0625 0
0.21875 0.09375 0
0.25 0.09375 0
0.1875 0.09375 0
0.21875 0.09375 0
0.1875 0.125 0
0.21875 0.125 0
0.21875 0.09375 0
0.25 0.09375 0
0.21875 0.125 0
0.25 0.125 0
0 0.125 0
0.03125 0.125 0
0 0.15625 0
0.03125 0.15625 0
0.03125 0.125 0
0.0625 0.125 0
0.03125 0.15625 0
0.0625 0.15625 0
0 0.15625 0
0.03125 0.15625 0
0 0.1875 0
0.03125 0.1875 0
0.03125 0.15625 0
0.0625 0.15625 0
0.03125 0.1875 0
0.0625 0.1875 0
0.0625 0.125 0
0.09375 0.125 0
0.0625 0.15625 0
0.09375 0.15625 0
0.09375 0.125 0
0.125 0.125 0
0.09375 0.15625 0
0.125 0.15625 0
0.0625 0.15625 0
0.09375 0.15625 0
0.0625 0.1875 0
0.09375 0.1875 0
0.09375 0.15625 0
0.125 0.15625 0
0.09375 0.1875 0
0.125 0.1875 0
0 0.1875 0
0.03125 0.1875 0
0 0.21875 0
0.03125 0.21875 0
0.03125 0.1875 0
0.0625 0.1875 0
0.03125 0.21875 0
0.0625 0.21875 0
0 0.21875 0
0.03125 0.21875 0
0 0.25 0
0.03125 0.25 0
0.03125 0.21875 0
0.0625 0.21875 0
0.03125 0.25 0
0.0625 0.25 0
0.0625 0.1875 0
0.09375 0.1875 0
0.0625 0.21875 0
0.09375 0.21875 0
0.09375 0.1875 0
0.125 0.1875 0
0.09375 0.21875 0
0.125 0.21875 0
0.0625 0.21875 0
0.09375 0.21875 0
0.0625 0.25 0
0.09375 0.25 0
0.09375 0.21875 0
0.125 0.21875 0
0.09375 0.25 0
0.125 0.25 0
0.125 0.125 0
0.15625 0.125 0
0.125 0.15625 0
0.15625 0.15625 0
0.15625 0.125 0
0.1875 0.125 0
0.15625 0.15625 0
0.1875 0.15625 0
0.125 0.15625 0
0.15625 0.15625 0
0.125 0.1875 0
0.15625 0.1875 0
0.15625 0.15625 0
0.1875 0.15625 0
0.15625 0.1875 0
0.1875 0.1875 0
0.1875 0.125 0
0.21875 0.125 0
0.1875 0.15625 0
0.21875 0.15625 0
0.21875 0.125 0
0.25 0.125 0
0.21875 0.15625 0
0.25 0.15625 0
0.1875 0.15625 0
0.21875 0.15625 0
0.1875 0.1875 0
0.21875 0.1875 0
0.21875 0.15625 0
0.25 0.15625 0
0.21875 0.1875 0
0.25 0.1875 0
0.125 0.1875 0
0.15625 0.1875 0
0.125 0.21875 0
0.15625 0.21875 0
0.15625 0.1875 0
0.1875 0.1875 0
0.15625 0.21875 0
0.1875 0.21875 0
0.125 0.21875 0
0.15625 0.21875 0
0.125 0.25 0
0.15625 0.25 0
0.15625 0.21875 0
0.1875 0.21875 0
0.15625 0.25 0
0.1875 0.25 0
0.1875 0.1875 0
0.21875 0.1875 0
0.1875 0.21875 0
0.21875 0.21875 0
0.21875 0.1875 0
0.25 0.1875 0
0.21875 0.21875 0
0.25 0.21875 0
0.1875 0.21875 0
0.21875 0.21875 0
0.1875 0.25 0
0.21875 0.25 0
0.21875 0.21875 0
0.25 0.21875 0
0.21875 0.25 0
0.25 0.25 0
0.25 0 0
0.28125 0 0
0.25 0.03125 0
0.28125 0.03125 0
0.28125 0 0
0.3125 0 0
0.28125 0.03125 0
0.3125 0.03125 0
0.25 0.03125 0
0.28125 0.03125 0
0.25 0.0625 0
0.28125 0.0625 0
0.28125 0.03125 0
0.3125 0.03125 0
0.28125 0.0625 0
0.3125 0.0625 0
0.3125 0 0
0.34375 0 0
0.3125 0.03125 0
0.34375 0.03125 0
0.34375 0 0
0.375 0 0
0.34375 0.03125 0
0.375 0.03125 0
0.3125 0.03125 0
0.34375 0.03125 0
0.3125 0.0625 0
0.34375 0.0625 0
0.34375 0.03125 0
0.375 0.03125 0
0.34375 0.0625 0
0.375 0.0625 0
0.25 0.0625 0
0.28125 0.0625 0
0.25 0.09375 0
0.28125 0.09375 0
0.28125 0.0625 0
0.3125 0.0625 0
0.28125 0.09375 0
0.3125 0.09375 0
0.25 0.09375 0
0.28125 0.09375 0
0.25 0.125 0
0.28125 0.125 0
0.28125 0.09375 0
0.3125 0.09375 0
0.28125 0.125 0
0.3125 0.125 0
0.3125 0.0625 0
0.34375 0.0625 0
0.3125 0.09375 0
0.34375 0.09375 0
0.34375 0.0625 0
0.375 0.0625 0
0.34375 0.09375 0
0.375 0.09375 0
0.3125 0.09375 0
0.34375 0.09375 0
0.3125 0.125 0
0.34375 0.125 0
0.34375 0.09375 0
0.375 0.09375 0
0.34375 0.125 0
0.375 0.125 0
0.375 0 0
0.40625 0 0
0.375 0.03125 0
0.40625 0.03125 0
0.40625 0 0
0.4375 0 0
0.40625 0.03125 0
0.4375 0.03125 0
0.375 0.03125 0
0.40625 0.03125 0
0.375 0.0625 0
0.40625 0.0625 0
0.40625 0.03125 0
0.4375 0.03125 0
0.40625 0.0625 0
0.4375 0.0625 0
0.4375 0 0
0.46875 0 0
0.4375 0.03125 0
0.46875 0.03125 0
0.46875 0 0
0.5 0 0
0.46875 0.03125 0
0.5 0.03125 0
0.4375 0.03125 0
0.46875 0.03125 0
0.4375 0.0625 0
0.46875 0.0625 0
0.46875 0.03125 0
0.5 0.03125 0
0.46875 0.0625 0
0.5 0.0625 0
0.375 0.0625 0
0.40625 0.0625 0
0.375 0.09375 0
0.40625 0.09375 0
0.40625 0.0625 0
0.4375 0.0625 0
0.40625 0.09375 0
0.4375 0.09375 0
0.375 0.09375 0
0.40625 0.09375 0
0.375 0.125 0
0.40625 0.125 0
0.40625 0.09375 0
0.4375 0.09375 0
0.40625 0.125 0
0.4375 0.125 0
0.4375 0.0625 0
0.46875 0.0625 0
0.4375 0.09375 0
0.46875 0.09375 0
0.46875 0.0625 0
0.5 0.0625 0
0.46875 0.09375 0
0.5 0.09375 0
0.4375 0.09375 0
0.46875 0.09375 0
0.4375 0.125 0
0.46875 0.125 0
0.46875 0.09375 0
0.5 0.09375 0
0.46875 0.125 0
0.5 0.125 0
0.25 0.125 0
0.28125 0.125 0
0.25 0.15625 0
0.28125 0.15625 0
0.28125 0.125 0
0.3125 0.125 0
0.28125 0.15625 0
0.3125 0.15625 0
0.25 0.15625 0
0.28125 0.15625 0
0.25 0.1875 0
0.28125 0.1875 0
0.28125 0.15625 0
0.3125 0.15625 0
0.28125 0.1875 0
0.3125 0.1875 0
0.3125 0.125 0
0.34375 0.125 0
0.3125 0.15625 0
0.34375 0.15625 0
0.34375 0.125 0
0.375 0.125 0
0.34375 0.15625 0
0.375 0.15625 0
0.3125 0.15625 0
0.34375 0.15625 0
0.3125 0.1875 0
0.34375 0.1875 0
0.34375 0.15625 0
0.375 0.15625 0
0.34375 0.1875 0
0.375 0.1875 0
0.25 0.1875 0
0.28125 0.1875 0
0.25 0.21875 0
0.28125 0.21875 0
0.28125 0.1875 0
0.3125 0.1875 0
0.28125 0.21875 0
0.3125 0.21875 0
0.25 0.21875 0
0.28125 0.21875 0
0.25 0.25 0
0.28125 0.25 0
0.28125 0.21875 0
0.3125 0.21875 0
0.28125 0.25 0
0.3125 0.25 0
0.3125 0.1875 0
0.34375 0.1875 0
0.3125 0.21875 0
0.34375 0.21875 0
0.34375 0.1875 0
0.375 0.1875 0
0.34375 0.21875 0
0.375 0.21875 0
0.3125 0.21875 0
0.34375 0.21875 0
0.3125 0.25 0
0.34375 0.25 0
0.34375 0.21875 0
0.375 0.21875 0
0.34375 0.25 0
0.375 0.25 0
0.375 0.125 0
0.40625 0.125 0
0.375 0.15625 0
0.40625 0.15625 0
0.40625 0.125 0
0.4375 0.125 0
0.40625 0.15625 0
0.4375 0.15625 0
0.375 0.15625 0
0.40625 0.15625 0
0.375 0.1875 0
0.40625 0.1875 0
0.40625 0.15625 0
0.4375 0.15625 0
0.40625 0.1875 0
0.4375 0.1875 0
0.4375 0.125 0
0.46875 0.125 0
0.4375 0.15625 0
0.46875 0.15625 0
0.46875 0.125 0
0.5 0.125 0
0.46875 0.15625 0
0.5 0.15625 0
0.4375 0.15625 0
0.46875 0.15625 0
0.4375 0.1875 0
0.46875 0.1875 0
0.46875 0.15625 0
0.5 0.15625 0
0.46875 0.1875 0
0.5 0.1875 0
0.375 0.1875 0
0.40625 0.1875 0
0.375 0.21875 0
0.40625 0.21875 0
0.40625 0.1875 0
0.4375 0.1875 0
0.40625 0.21875 0
0.4375 0.21875 0
0.375 0.21875 0
0.40625 0.21875 0
0.375 0.25 0
0.40625 0.25 0
0.40625 0.21875 0
0.4375 0.21875 0
0.40625 0.25 0
0.4375 0.25 0
0.4375 0.1875 0
0.46875 0.1875 0
0.4375 0.21875 0
0.46875 0.21875 0
0.46875 0.1875 0
0.5 0.1875 0
0.46875 0.21875 0
0.5 0.21875 0
0.4375 0.21875 0
0.46875 0.21875 0
0.4375 0.25 0
0.46875 0.25 0
0.46875 0.21875 0
0.5 0.21875 0
0.46875 0.25 0
0.5 0.25 0
0 0.25 0
0.03125 0.25 0
0 0.28125 0
0.03125 0.28125 0
0.03125 0.25 0
0.0625 0.25 0
0.03125 0.28125 0
0.0625 0.28125 0
0 0.28125 0
0.03125 0.28125 0
0 0.3125 0
0.03125 0.3125 0
0.03125 0.28125 0
0.0625 0.28125 0
0.03125 0.3125 0
0.0625 0.3125 0
0.0625 0.25 0
0.09375 0.25 0
0.0625 0.28125 0
0.09375 0.28125 0
0.09375 0.25 0
0.125 0.25 0
0.09375 0.28125 0
0.125 0.28125 0
0.0625 0.28125 0
0.09375 0.28125 0
0.0625 0.3125 0
0.09375 0.3125 0
0.09375 0.28125 0
0.125 0.28125 0
0.09375 0.3125 0
0.125 0.3125 0
0 0.3125 0
0.03125 0.3125 0
0 0.34375 0
0.03125 0.34375 0
0.03125 0.3125 0
0.0625 0.3125 0
0.03125 0.34375 0
0.0625 0.34375 0
0 0.34375 0
0.03125 0.34375 0
0 0.375 0
0.03125 0.375 0
0.03125 0.34375 0
0.0625 0.34375 0
0.03125 0.375 0
0.0625 0.375 0
0.0625 0.3125 0
0.09375 0.3125 0
0.0625 0.34375 0
0.09375 0.34375 0
0.09375 0.3125 0
0.125 0.3125 0
0.09375 0.34375 0
0.125 0.34375 0
0.0625 0.34375 0
0.09375 0.34375 0
0.0625 0.375 0
0.09375 0.375 0
0.09375 0.34375 0
0.125 0.34375 0
0.09375 0.375 0
0.125 0.375 0
0.125 0.25 0
0.15625 0.25 0
0.125 0.28125 0
0.15625 0.28125 0
0.15625 0.25 0
0.1875 0.25 0
0.15625 0.28125 0
0.1875 0.28125 0
0.125 0.28125 0
0.15625 0.28125 0
0.125 0.3125 0
0.15625 0.3125 0
0.15625 0.28125 0
0.1875 0.28125 0
0.15625 0.3125 0
0.1875 0.3125 0
0.1875 0.25 0
0.21875 0.25 0
0.1875 0.28125 0
0.21875 0.28125 0
0.21875 0.25 0
0.25 0.25 0
0.21875 0.28125 0
0.25 0.28125 0
0.1875 0.28125 0
0.21875 0.28125 0
0.1875 0.3125 0
0.21875 0.3125 0
0.21875 0.28125 0
0.25 0.28125 0
0.21875 0.3125 0
0.25 0.3125 0
0.125 0.3125 0
0.15625 0.3125 0
0.125 0.34375 0
0.15625 0.34375 0
0.15625 0.3125 0
0.1875 0.3125 0
0.15625 0.34375 0
0.1875 0.34375 0
0.125 0.34375 0
[...]
POINT_DATA 4096
SCALARS u double 1
LOOKUP_TABLE default
-2.05003e-11 -1.62064e-11 0.0312449 0.0322367 -1.80166e-11 -1.88665e-11 0.0322367 0.03326 0.0312449 0.0322367 0.0624593 0.064442 0.0322367 0.03326 0.064442 0.0664876 -1.82699e-11 -1.9943e-11 0.03326 0.0343158 -1.89324e-11 -2.06297e-11 0.0343158 0.0354051 0.03326 0.0343158 0.0664876 0.0685981 0.0343158 0.0354051 0.0685981 0.0707757 0.0624593 0.064442 0.0936127 0.0965843 0.064442 0.0664876 0.0965843 0.0996502 0.0936127 0.0965843 0.124675 0.128632 0.0965843 0.0996502 0.128632 0.132716 0.0664876 0.0685981 0.0996502 0.102813 0.0685981 0.0707757 0.102813 0.106077 0.0996502 0.102813 0.132716 0.136928 0.102813 0.106077 0.136928 0.141275 -1.96352e-11 -2.12365e-11 0.0354051 0.036529 -2.0345e-11 -2.18435e-11 0.036529 0.0376886 0.0354051 0.036529 0.0707757 0.0730223 0.036529 0.0376886 0.0730223 0.0753403 -2.10609e-11 -2.24722e-11 0.0376886 0.0388849 -2.17855e-11 -2.31284e-11 0.0388849 0.0401193 0.0376886 0.0388849 0.0753403 0.0777319 0.0388849 0.0401193 0.0777319 0.0801994 0.0707757 0.0730223 0.106077 0.109444 0.0730223 0.0753403 0.109444 0.112919 0.106077 0.109444 0.141275 0.14576 0.109444 0.112919 0.14576 0.150386 0.0753403 0.0777319 0.112919 0.116503 0.0777319 0.0801994 0.116503 0.120201 0.112919 0.116503 0.150386 0.15516 0.116503 0.120201 0.15516 0.160086 0.124675 0.128632 0.155615 0.160555 0.128632 0.132716 0.160555 0.165651 0.155615 0.160555 0.186403 0.19232 0.160555 0.165651 0.19232 0.198425 0.132716 0.136928 0.165651 0.17091 0.136928 0.141275 0.17091 0.176335 0.165651 0.17091 0.198425 0.204724 0.17091 0.176335 0.204724 0.211223 0.186403 0.19232 0.21701 0.223898 0.19232 0.198425 0.223898 0.231005 0.21701 0.223898 0.247404 0.255257 0.223898 0.231005 0.255257 0.26336 0.198425 0.204724 0.231005 0.238338 0.204724 0.211223 0.238338 0.245904 0.231005 0.238338 0.26336 0.27172 0.238338 0.245904 0.27172 0.280345 0.141275 0.14576 0.176335 0.181932 0.14576 0.150386 0.181932 0.187708 0.176335 0.181932 0.211223 0.217928 0.181932 0.187708 0.217928 0.224845 0.150386 0.15516 0.187708 0.193666 0.15516 0.160086 0.193666 0.199814 0.187708 0.193666 0.224845 0.231983 0.193666 0.199814 0.231983 0.239347 0.211223 0.217928 0.245904 0.25371 0.217928 0.224845 0.25371 0.261764 0.245904 0.25371 0.280345 0.289245 0.25371 0.261764 0.289245 0.298426 0.224845 0.231983 0.261764 0.270073 0.231983 0.239347 0.270073 0.278646 0.261764 0.270073 0.298426 0.307899 0.270073 0.278646 0.307899 0.317673 -2.25227e-11 -2.38137e-11 0.0401193 0.0413928 -2.3275e-11 -2.45277e-11 0.0413928 0.0427067 0.0401193 0.0413928 0.0801994 0.0827451 0.0413928 0.0427067 0.0827451 0.0853718 -2.40449e-11 -2.52705e-11 0.0427067 0.0440624 -2.48344e-11 -2.6042e-11 0.0440624 0.0454611 0.0427067 0.0440624 0.0853718 0.0880818 0.0440624 0.0454611 0.0880818 0.0908778 0.0801994 0.0827451 0.120201 0.124017 0.0827451 0.0853718 0.124017 0.127953 0.120201 0.124017 0.160086 0.165167 0.124017 0.127953 0.165167 0.17041 0.0853718 0.0880818 0.127953 0.132015 0.0880818 0.0908778 0.132015 0.136206 0.127953 0.132015 0.17041 0.17582 0.132015 0.136206 0.17582 0.181401 -2.56449e-11 -2.68419e-11 0.0454611 0.0469042 -2.64783e-11 -2.76708e-11 0.0469042 0.0483931 0.0454611 0.0469042 0.0908778 0.0937625 0.0469042 0.0483931 0.0937625 0.0967389 -2.73354e-11 -2.85286e-11 0.0483931 0.0499292 -2.82176e-11 -2.94161e-11 0.0499292 0.0515142 0.0483931 0.0499292 0.0967389 0.0998097 0.0499292 0.0515142 0.0998097 0.102978 0.0908778 0.0937625 0.136206 0.140529 0.0937625 0.0967389 0.140529 0.14499 0.136206 0.140529 0.181401 0.187159 0.140529 0.14499 0.187159 0.1931 0.0967389 0.0998097 0.14499 0.149593 0.0998097 0.102978 0.149593 0.154341 0.14499 0.149593 0.1931 0.19923 0.149593 0.154341 0.19923 0.205554 0.160086 0.165167 0.199814 0.206156 0.165167 0.17041 0.206156 0.2127 0.199814 0.206156 0.239347 0.246944 0.206156 0.2127 0.246944 0.254783 0.17041 0.17582 0.2127 0.219452 0.17582 0.181401 0.219452 0.226418 0.2127 0.219452 0.254783 0.262871 0.219452 0.226418 0.262871 0.271215 0.239347 0.246944 0.278646 0.287491 0.246944 0.254783 0.287491 0.296617 0.278646 0.287491 0.317673 0.327757 0.287491 0.296617 0.327757 0.338161 0.254783 0.262871 0.296617 0.306033 0.262871 0.271215 0.306033 0.315747 0.296617 0.306033 0.338161 0.348895 0.306033 0.315747 0.348895 0.359971 0.181401 0.187159 0.226418 0.233606 0.187159 0.1931 0.233606 0.241021 0.226418 0.233606 0.271215 0.279824 0.233606 0.241021 0.279824 0.288707 0.1931 0.19923 0.241021 0.248672 0.19923 0.205554 0.248672 0.256566 0.241021 0.248672 0.288707 0.297872 0.248672 0.256566 0.297872 0.307327 0.271215 0.279824 0.315747 0.32577 0.279824 0.288707 0.32577 0.336111 0.315747 0.32577 0.359971 0.371397 0.32577 0.336111 0.371397 0.383187 0.288707 0.297872 0.336111 0.34678 0.297872 0.307327 0.34678 0.357788 0.336111 0.34678 0.383187 0.39535 0.34678 0.357788 0.39535 0.4079 0.247404 0.255257 0.277557 0.286367 0.255257 0.26336 0.286367 0.295458 0.277557 0.286367 0.307439 0.317198 0.286367 0.295458 0.317198 0.327267 0.26336 0.27172 0.295458 0.304836 0.27172 0.280345 0.304836 0.314513 0.295458 0.304836 0.327267 0.337655 0.304836 0.314513 0.337655 0.348373 0.307439 0.317198 0.33702 0.347718 0.317198 0.327267 0.347718 0.358756 0.33702 0.347718 0.366273 0.377899 0.347718 0.358756 0.377899 0.389895 0.327267 0.337655 0.358756 0.370144 0.337655 0.348373 0.370144 0.381894 0.358756 0.370144 0.389895 0.402272 0.370144 0.381894 0.402272 0.415041 0.280345 0.289245 0.314513 0.324497 0.289245 0.298426 0.324497 0.334797 0.314513 0.324497 0.348373 0.359432 0.324497 0.334797 0.359432 0.370842 0.298426 0.307899 0.334797 0.345425 0.307899 0.317673 0.345425 0.35639 0.334797 0.345425 0.370842 0.382613 0.345425 0.35639 0.382613 0.394759 0.348373 0.359432 0.381894 0.394016 0.359432 0.370842 0.394016 0.406524 0.381894 0.394016 0.415041 0.428216 0.394016 0.406524 0.428216 0.441809 0.370842 0.382613 0.406524 0.419428 0.382613 0.394759 0.419428 0.432742 0.406524 0.419428 0.441809 0.455834 0.419428 0.432742 0.455834 0.470303 0.366273 0.377899 0.395167 0.407711 0.377899 0.389895 0.407711 0.420653 0.395167 0.407711 0.423676 0.437125 0.407711 0.420653 0.437125 0.451001 0.389895 0.402272 0.420653 0.434006 0.402272 0.415041 0.434006 0.447783 0.420653 0.434006 0.451001 0.465317 0.434006 0.447783 0.465317 0.480088 0.423676 0.437125 0.451771 0.466112 0.437125 0.451001 0.466112 0.480908 0.451771 0.466112 0.479426 0.494644 0.466112 0.480908 0.494644 0.510346 0.451001 0.465317 0.480908 0.496174 0.465317 0.480088 0.496174 0.511924 0.480908 0.496174 0.510346 0.526546 0.496174 0.511924 0.526546 0.54326 0.415041 0.428216 0.447783 0.461997 0.428216 0.441809 0.461997 0.476663 0.447783 0.461997 0.480088 0.495328 0.461997 0.476663 0.495328 0.511051 0.441809 0.455834 0.476663 0.491794 0.455834 0.470303 0.491794 0.507405 0.476663 0.491794 0.511051 0.527274 0.491794 0.507405 0.527274 0.544011 0.480088 0.495328 0.511924 0.528174 0.495328 0.511051 0.528174 0.54494 0.511924 0.528174 0.54326 0.560505 0.528174 0.54494 0.560505 0.578298 0.511051 0.527274 0.54494 0.562239 0.527274 0.544011 0.562239 0.580086 0.54494 0.562239 0.578298 0.596655 0.562239 0.580086 0.596655 0.615595 0.317673 0.327757 0.35639 0.367703 0.327757 0.338161 0.367703 0.379375 0.35639 0.367703 0.394759 0.40729 0.367703 0.379375 0.40729 0.420219 0.338161 0.348895 0.379375 0.391418 0.348895 0.359971 0.391418 0.403843 0.379375 0.391418 0.420219 0.433558 0.391418 0.403843 0.433558 0.44732 0.394759 0.40729 0.432742 0.446479 0.40729 0.420219 0.446479 0.460652 0.432742 0.446479 0.470303 0.485232 0.446479 0.460652 0.485232 0.500635 0.420219 0.433558 0.460652 0.475274 0.433558 0.44732 0.475274 0.490361 0.460652 0.475274 0.500635 0.516527 0.475274 0.490361 0.516527 0.532923 0.359971 0.371397 0.403843 0.416662 0.371397 0.383187 0.416662 0.429888 0.403843 0.416662 0.44732 0.46152 0.416662 0.429888 0.46152 0.47617 0.383187 0.39535 0.429888 0.443534 0.39535 0.4079 0.443534 0.457614 0.429888 0.443534 0.47617 0.491285 0.443534 0.457614 0.491285 0.50688 0.44732 0.46152 0.490361 0.505927 0.46152 0.47617 0.505927 0.521987 0.490361 0.505927 0.532923 0.54984 0.505927 0.521987 0.54984 0.567294 0.47617 0.491285 0.521987 0.538557 0.491285 0.50688 0.538557 0.555652 0.521987 0.538557 0.567294 0.585302 0.538557 0.555652 0.585302 0.603881 0.470303 0.485232 0.507405 0.523512 0.485232 0.500635 0.523512 0.54013 0.507405 0.523512 0.544011 0.56128 0.523512 0.54013 0.56128 0.579097 0.500635 0.516527 0.54013 0.557275 0.516527 0.532923 0.557275 0.574965 0.54013 0.557275 0.579097 0.597479 0.557275 0.574965 0.597479 0.616445 0.544011 0.56128 0.580086 0.5985 0.56128 0.579097 0.5985 0.617498 0.580086 0.5985 0.615595 0.635136 0.5985 0.617498 0.635136 0.655297 0.579097 0.597479 0.617498 0.6371 0.597479 0.616445 0.6371 0.657324 0.617498 0.6371 0.655297 0.676098 0.6371 0.657324 0.676098 0.69756 0.532923 0.54984 0.574965 0.593216 0.54984 0.567294 0.593216 0.612047 0.574965 0.593216 0.616445 0.636013 0.593216 0.612047 0.636013 0.656203 0.567294 0.585302 0.612047 0.631476 0.585302 0.603881 0.631476 0.651521 0.612047 0.631476 0.656203 0.677033 0.631476 0.651521 0.677033 0.698524 0.616445 0.636013 0.657324 0.678189 0.636013 0.656203 0.678189 0.699717 0.657324 0.678189 0.69756 0.719703 0.678189 0.699717 0.719703 0.742549 0.656203 0.677033 0.699717 0.721929 0.677033 0.698524 0.721929 0.744845 0.699717 0.721929 0.742549 0.76612 0.721929 0.744845 0.76612 0.790439 -2.91263e-11 -3.03337e-11 0.0515142 0.0531494 -3.00624e-11 -3.12822e-11 0.0531494 0.0548365 0.0515142 0.0531494 0.102978 0.106247 0.0531494 0.0548365 0.106247 0.10962 -3.10268e-11 -3.2262e-11 0.0548365 0.0565772 -3.2021e-11 -3.32742e-11 0.0565772 0.0583732 0.0548365 0.0565772 0.10962 0.113099 0.0565772 0.0583732 0.113099 0.116689 0.102978 0.106247 0.154341 0.159241 0.106247 0.10962 0.159241 0.164295 0.154341 0.159241 0.205554 0.212079 0.159241 0.164295 0.212079 0.218811 0.10962 0.113099 0.164295 0.169511 0.113099 0.116689 0.169511 0.174892 0.164295 0.169511 0.218811 0.225757 0.169511 0.174892 0.225757 0.232923 -3.30458e-11 -3.43196e-11 0.0583732 0.0602261 -3.41025e-11 -3.53992e-11 0.0602261 0.0621379 0.0583732 0.0602261 0.116689 0.120393 0.0602261 0.0621379 0.120393 0.124215 -3.51921e-11 -3.65138e-11 0.0621379 0.0641104 -3.63157e-11 -3.76645e-11 0.0641104 0.0661455 0.0621379 0.0641104 0.124215 0.128158 0.0641104 0.0661455 0.128158 0.132226 0.116689 0.120393 0.174892 0.180443 0.120393 0.124215 0.180443 0.186171 0.174892 0.180443 0.232923 0.240317 0.180443 0.186171 0.240317 0.247945 0.124215 0.128158 0.186171 0.192081 0.128158 0.132226 0.192081 0.198178 0.186171 0.192081 0.247945 0.255816 0.192081 0.198178 0.255816 0.263936 0.205554 0.212079 0.256566 0.26471 0.212079 0.218811 0.26471 0.273113 0.256566 0.26471 0.307327 0.317083 0.26471 0.273113 0.317083 0.327148 0.218811 0.225757 0.273113 0.281782 0.225757 0.232923 0.281782 0.290727 0.273113 0.281782 0.327148 0.337533 0.281782 0.290727 0.337533 0.348247 0.307327 0.317083 0.357788 0.369146 0.317083 0.327148 0.369146 0.380864 0.357788 0.369146 0.4079 0.420848 0.369146 0.380864 0.420848 0.434207 0.327148 0.337533 0.380864 0.392954 0.337533 0.348247 0.392954 0.405427 0.380864 0.392954 0.434207 0.447991 0.392954 0.405427 0.447991 0.462211 0.232923 0.240317 0.290727 0.299956 0.240317 0.247945 0.299956 0.309477 0.290727 0.299956 0.348247 0.359302 0.299956 0.309477 0.359302 0.370707 0.247945 0.255816 0.309477 0.319301 0.255816 0.263936 0.319301 0.329437 0.309477 0.319301 0.370707 0.382475 0.319301 0.329437 0.382475 0.394616 0.348247 0.359302 0.405427 0.418297 0.359302 0.370707 0.418297 0.431575 0.405427 0.418297 0.462211 0.476884 0.418297 0.431575 0.476884 0.492022 0.370707 0.382475 0.431575 0.445275 0.382475 0.394616 0.445275 0.459409 0.431575 0.445275 0.492022 0.50764 0.445275 0.459409 0.50764 0.523754 -3.74743e-11 -3.88522e-11 0.0661455 0.0682452 -3.86694e-11 -4.00783e-11 0.0682452 0.0704115 0.0661455 0.0682452 0.132226 0.136424 0.0682452 0.0704115 0.136424 0.140754 -3.99024e-11 -4.1344e-11 0.0704115 0.0726466 -4.11735e-11 -4.26497e-11 0.0726466 0.0749527 0.0704115 0.0726466 0.140754 0.145222 0.0726466 0.0749527 0.145222 0.149832 0.132226 0.136424 0.198178 0.204469 0.136424 0.140754 0.204469 0.21096 0.198178 0.204469 0.263936 0.272315 0.204469 0.21096 0.272315 0.280959 0.140754 0.145222 0.21096 0.217656 0.145222 0.149832 0.217656 0.224565 0.21096 0.217656 0.280959 0.289877 0.217656 0.224565 0.289877 0.299079 -4.2485e-11 -4.39976e-11 0.0749527 0.0773319 -4.38377e-11 -4.53891e-11 0.0773319 0.0797867 0.0749527 0.0773319 0.149832 0.154588 0.0773319 0.0797867 0.154588 0.159495 -4.5233e-11 -4.68226e-11 0.0797867 0.0823194 -4.69602e-11 -4.71943e-11 0.0823194 0.0849325 0.0797867 0.0823194 0.159495 0.164558 0.0823194 0.0849325 0.164558 0.169782 0.149832 0.154588 0.224565 0.231694 0.154588 0.159495 0.231694 0.239048 0.224565 0.231694 0.299079 0.308573 0.231694 0.239048 0.308573 0.318368 0.159495 0.164558 0.239048 0.246637 0.164558 0.169782 0.246637 0.254466 0.239048 0.246637 0.318368 0.328474 0.246637 0.254466 0.328474 0.338901 0.263936 0.272315 0.329437 0.339894 0.272315 0.280959 0.339894 0.350684 0.329437 0.339894 0.394616 0.407142 0.339894 0.350684 0.407142 0.420066 0.280959 0.289877 0.350684 0.361816 0.289877 0.299079 0.361816 0.373301 0.350684 0.361816 0.420066 0.433401 0.361816 0.373301 0.433401 0.447158 0.394616 0.407142 0.459409 0.473992 0.407142 0.420066 0.473992 0.489039 0.459409 0.473992 0.523754 0.54038 0.473992 0.489039 0.54038 0.557533 0.420066 0.433401 0.489039 0.504562 0.433401 0.447158 0.504562 0.520579 0.489039 0.504562 0.557533 0.575231 0.504562 0.520579 0.575231 0.593491 0.299079 0.308573 0.373301 0.385151 0.308573 0.318368 0.385151 0.397377 0.373301 0.385151 0.447158 0.461353 0.385151 0.397377 0.461353 0.475998 0.318368 0.328474 0.397377 0.409991 0.328474 0.338901 0.409991 0.423005 0.397377 0.409991 0.475998 0.491107 0.409991 0.423005 0.491107 0.506697 0.447158 0.461353 0.520579 0.537104 0.461353 0.475997 0.537104 0.554153 0.520579 0.537104 0.593491 0.612331 0.537104 0.554153 0.612331 0.631768 0.475998 0.491107 0.554153 0.571744 0.491107 0.506697 0.571744 0.589893 0.554153 0.571744 0.631768 0.651823 0.571744 0.589893 0.651823 0.672514 0.4079 0.420848 0.457614 0.47214 0.420848 0.434207 0.47214 0.487127 0.457614 0.47214 0.50688 0.522971 0.47214 0.487127 0.522971 0.539571 0.434207 0.447991 0.487127 0.50259 0.447991 0.462211 0.50259 0.518544 0.487127 0.50259 0.539571 0.556699 0.50259 0.518544 0.556699 0.574371 0.50688 0.522971 0.555652 0.57329 0.522971 0.539571 0.57329 0.591489 0.555652 0.57329 0.603881 0.623051 0.57329 0.591489 0.623051 0.642828 0.539571 0.556699 0.591489 0.610264 0.556699 0.574371 0.610264 0.629636 0.591489 0.610264 0.642828 0.663234 0.610264 0.629636 0.663234 0.684287 0.462211 0.476884 0.518544 0.535005 0.476884 0.492022 0.535005 0.551988 0.518544 0.535005 0.574371 0.592603 0.535005 0.551988 0.592603 0.611414 0.492022 0.50764 0.551988 0.569509 0.50764 0.523754 0.56951 0.587588 0.551988 0.569509 0.611414 0.630823 0.569509 0.587588 0.630823 0.650847 0.574371 0.592603 0.629636 0.649623 0.592603 0.611414 0.649623 0.670244 0.629636 0.649623 0.684287 0.706009 0.649623 0.670244 0.706009 0.72842 0.611414 0.630823 0.670244 0.69152 0.630823 0.650847 0.69152 0.713471 0.670244 0.69152 0.72842 0.751542 0.69152 0.713471 0.751542 0.775399 0.603881 0.623051 0.651521 0.672202 0.623051 0.642828 0.672202 0.69354 0.651521 0.672202 0.698524 0.720698 0.672202 0.69354 0.720698 0.743575 0.642828 0.663234 0.69354 0.715556 0.663234 0.684287 0.715556 0.73827 0.69354 0.715556 0.743575 0.767179 0.715556 0.73827 0.767179 0.791531 0.698524 0.720698 0.744845 0.768489 0.720698 0.743575 0.768489 0.792884 0.744845 0.768489 0.790439 0.81553 0.768489 0.792884 0.81553 0.841418 0.743575 0.767179 0.792884 0.818052 0.767179 0.791531 0.818052 0.84402 0.792884 0.818052 0.841418 0.868128 0.818052 0.84402 0.868128 0.895685 0.684287 0.706009 0.73827 0.761705 0.706009 0.72842 0.761705 0.785884 0.73827 0.761705 0.791531 0.816657 0.761705 0.785884 0.816657 0.842581 0.72842 0.751542 0.785884 0.810831 0.751542 0.775399 0.810831 0.836569 0.785884 0.810831 0.842581 0.869327 0.810831 0.836569 0.869327 0.896923 0.791531 0.816657 0.84402 0.870812 0.816657 0.842581 0.870812 0.898455 0.84402 0.870812 0.895685 0.924117 0.870812 0.898455 0.924117 0.953452 0.842581 0.869327 0.898455 0.926975 0.869327 0.896923 0.926975 0.9564 0.898455 0.926975 0.953452 0.983717 0.926975 0.9564 0.983717 1.01494 0.523754 0.54038 0.587588 0.60624 0.54038 0.557533 0.60624 0.625484 0.587588 0.60624 0.650847 0.671507 0.60624 0.625484 0.671507 0.692823 0.557533 0.575231 0.625484 0.645339 0.575231 0.593491 0.645339 0.665824 0.625484 0.645339 0.692823 0.714816 0.645339 0.665824 0.714816 0.737507 0.650847 0.671507 0.713471 0.73612 0.671507 0.692823 0.73612 0.759486 0.713471 0.73612 0.775399 0.800013 0.73612 0.759486 0.800013 0.825408 0.692823 0.714816 0.759486 0.783595 0.714816 0.737507 0.783595 0.808469 0.759486 0.783595 0.825408 0.851609 0.783595 0.808469 0.851609 0.878642 0.593491 0.612331 0.665824 0.68696 0.612331 0.631768 0.68696 0.708766 0.665824 0.68696 0.737507 0.760918 0.68696 0.708766 0.760918 0.785072 0.631768 0.651823 0.708766 0.731265 0.651823 0.672514 0.731265 0.754478 0.708766 0.731265 0.785072 0.809993 0.731265 0.754478 0.809993 0.835705 0.737507 0.760918 0.808469 0.834133 0.760918 0.785072 0.834133 0.860611 0.808469 0.834133 0.878642 0.906533 0.834133 0.860611 0.906533 0.93531 0.785072 0.809993 0.860611 0.88793 0.809993 0.835705 0.88793 0.916116 0.860611 0.88793 0.93531 0.965 0.88793 0.916116 0.965 0.995632 0.775399 0.800013 0.836569 0.863125 0.800013 0.825408 0.863125 0.890523 0.836569 0.863125 0.896923 0.925394 0.863125 0.890523 0.925394 0.954769 0.825408 0.851609 0.890523 0.918792 0.851609 0.878642 0.918792 0.947957 0.890523 0.918792 0.954769 0.985077 0.918792 0.947957 0.985077 1.01635 0.896923 0.925394 0.9564 0.98676 0.925394 0.954769 0.98676 1.01808 0.9564 0.98676 1.01494 1.04716 0.98676 1.01808 1.04716 1.0804 0.954769 0.985077 1.01808 1.0504 0.985077 1.01635 1.0504 1.08374 1.01808 1.0504 1.0804 1.1147 1.0504 1.08374 1.1147 1.15008 0.878642 0.906533 0.947957 0.978049 0.906533 0.93531 0.978049 1.0091 0.947957 0.978049 1.01635 1.04861 0.978049 1.0091 1.04861 1.0819 0.93531 0.965 1.0091 1.04113 0.965 0.995632 1.04113 1.07418 1.0091 1.04113 1.0819 1.11624 1.04113 1.07418 1.11624 1.15167 1.01635 1.04861 1.08374 1.11815 1.04861 1.0819 1.11815 1.15364 1.08374 1.11815 1.15008 1.18659 1.11815 1.15364 1.18659 1.22426 1.0819 1.11624 1.15364 1.19026 1.11624 1.15167 1.19026 1.22804 1.15364 1.19026 1.22426 1.26312 1.19026 1.22804 1.26312 1.30321 0.479426 0.494644 0.506611 0.522693 0.494644 0.510346 0.522693 0.539285 0.506611 0.522693 0.533303 0.550232 0.522693 0.539285 0.550232 0.567698 0.510346 0.526546 0.539285 0.556404 0.526546 0.54326 0.556404 0.574066 0.539285 0.556404 0.567698 0.585718 0.556404 0.574066 0.585718 0.604311 0.533303 0.550232 0.559473 0.577233 0.550232 0.567698 0.577233 0.595556 0.559473 0.577233 0.585097 0.60367 0.577233 0.595556 0.60367 0.622833 0.567698 0.585718 0.595556 0.614461 0.585718 0.604311 0.614461 0.633966 0.595556 0.614461 0.622833 0.642604 0.614461 0.633966 0.642604 0.663002 0.54326 0.560505 0.574066 0.592289 0.560505 0.578298 0.592289 0.61109 0.574066 0.592289 0.604311 0.623494 0.592289 0.61109 0.623494 0.643286 0.578298 0.596655 0.61109 0.630488 0.596655 0.615595 0.630488 0.650502 0.61109 0.630488 0.643286 0.663706 0.630488 0.650502 0.663706 0.684774 0.604311 0.623494 0.633966 0.65409 0.623494 0.643286 0.65409 0.674853 0.633966 0.65409 0.663002 0.684048 0.65409 0.674853 0.684048 0.705762 0.643286 0.663706 0.674853 0.696276 0.663706 0.684774 0.696276 0.718378 0.674853 0.696276 0.705762 0.728165 0.696276 0.718378 0.728165 0.75128 0.585097 0.60367 0.61015 0.629518 0.60367 0.622833 0.629518 0.649501 0.61015 0.629518 0.634607 0.654752 0.629518 0.649501 0.654752 0.675536 0.622833 0.642604 0.649501 0.670119 0.642604 0.663002 0.670119 0.691391 0.649501 0.670119 0.675536 0.69698 0.670119 0.691391 0.69698 0