# vtk DataFile Version 3.0
#This file was generated by the deal.II library on 2021/8/11 at 23:49:37
ASCII
DATASET UNSTRUCTURED_GRID

POINTS 64 double
0 0 0
0.25 0 0
0 0.25 0
0.25 0.25 0
0.25 0 0
0.5 0 0
0.25 0.25 0
0.5 0.25 0
0 0.25 0
0.25 0.25 0
0 0.5 0
0.25 0.5 0
0.25 0.25 0
0.5 0.25 0
0.25 0.5 0
0.5 0.5 0
0.5 0 0
0.75 0 0
0.5 0.25 0
0.75 0.25 0
0.75 0 0
1 0 0
0.75 0.25 0
1 0.25 0
0.5 0.25 0
0.75 0.25 0
0.5 0.5 0
0.75 0.5 0
0.75 0.25 0
1 0.25 0
0.75 0.5 0
1 0.5 0
0 0.5 0
0.25 0.5 0
0 0.75 0
0.25 0.75 0
0.25 0.5 0
0.5 0.5 0
0.25 0.75 0
0.5 0.75 0
0 0.75 0
0.25 0.75 0
0 1 0
0.25 1 0
0.25 0.75 0
0.5 0.75 0
0.25 1 0
0.5 1 0
0.5 0.5 0
0.75 0.5 0
0.5 0.75 0
0.75 0.75 0
0.75 0.5 0
1 0.5 0
0.75 0.75 0
1 0.75 0
0.5 0.75 0
0.75 0.75 0
0.5 1 0
0.75 1 0
0.75 0.75 0
1 0.75 0
0.75 1 0
1 1 0

CELLS 16 80
4	0	1	3	2
4	4	5	7	6
4	8	9	11	10
4	12	13	15	14
4	16	17	19	18
4	20	21	23	22
4	24	25	27	26
4	28	29	31	30
4	32	33	35	34
4	36	37	39	38
4	40	41	43	42
4	44	45	47	46
4	48	49	51	50
4	52	53	55	54
4	56	57	59	58
4	60	61	63	62

CELL_TYPES 16
 9 9 9 9 9 9 9 9 9 9 9 9 9 9 9 9
POINT_DATA 64
SCALARS u double 1
LOOKUP_TABLE default
-7.02673e-07 -6.58059e-07 0.247404 0.317672 -7.42532e-07 -9.51784e-07 0.317673 0.407899 0.247402 0.31767 0.479425 0.615592 0.317671 0.407896 0.615595 0.790436 -9.27261e-07 -1.28728e-06 0.4079 0.523752 -1.23451e-06 -1.32836e-06 0.523754 0.672512 0.407897 0.523749 0.790439 1.01494 0.52375 0.672509 1.01494 1.30321 0.479422 0.615589 0.681639 0.875238 0.615591 0.790431 0.875242 1.12383 0.681634 0.875233 0.841471 1.08047 0.875237 1.12382 1.08047 1.38735 0.790434 1.01493 1.12383 1.44302 1.01494 1.3032 1.44303 1.85288 1.12383 1.44302 1.38735 1.78139 1.44302 1.85287 1.78139 2.28734 
