# vtk DataFile Version 3.0
#This file was generated by the deal.II library on 2021/8/11 at 23:49:37
ASCII
DATASET UNSTRUCTURED_GRID

POINTS 256 double
0 0 0
0.125 0 0
0 0.125 0
0.125 0.125 0
0.125 0 0
0.25 0 0
0.125 0.125 0
0.25 0.125 0
0 0.125 0
0.125 0.125 0
0 0.25 0
0.125 0.25 0
0.125 0.125 0
0.25 0.125 0
0.125 0.25 0
0.25 0.25 0
0.25 0 0
0.375 0 0
0.25 0.125 0
0.375 0.125 0
0.375 0 0
0.5 0 0
0.375 0.125 0
0.5 0.125 0
0.25 0.125 0
0.375 0.125 0
0.25 0.25 0
0.375 0.25 0
0.375 0.125 0
0.5 0.125 0
0.375 0.25 0
0.5 0.25 0
0 0.25 0
0.125 0.25 0
0 0.375 0
0.125 0.375 0
0.125 0.25 0
0.25 0.25 0
0.125 0.375 0
0.25 0.375 0
0 0.375 0
0.125 0.375 0
0 0.5 0
0.125 0.5 0
0.125 0.375 0
0.25 0.375 0
0.125 0.5 0
0.25 0.5 0
0.25 0.25 0
0.375 0.25 0
0.25 0.375 0
0.375 0.375 0
0.375 0.25 0
0.5 0.25 0
0.375 0.375 0
0.5 0.375 0
0.25 0.375 0
0.375 0.375 0
0.25 0.5 0
0.375 0.5 0
0.375 0.375 0
0.5 0.375 0
0.375 0.5 0
0.5 0.5 0
0.5 0 0
0.625 0 0
0.5 0.125 0
0.625 0.125 0
0.625 0 0
0.75 0 0
0.625 0.125 0
0.75 0.125 0
0.5 0.125 0
0.625 0.125 0
0.5 0.25 0
0.625 0.25 0
0.625 0.125 0
0.75 0.125 0
0.625 0.25 0
0.75 0.25 0
0.75 0 0
0.875 0 0
0.75 0.125 0
0.875 0.125 0
0.875 0 0
1 0 0
0.875 0.125 0
1 0.125 0
0.75 0.125 0
0.875 0.125 0
0.75 0.25 0
0.875 0.25 0
0.875 0.125 0
1 0.125 0
0.875 0.25 0
1 0.25 0
0.5 0.25 0
0.625 0.25 0
0.5 0.375 0
0.625 0.375 0
0.625 0.25 0
0.75 0.25 0
0.625 0.375 0
0.75 0.375 0
0.5 0.375 0
0.625 0.375 0
0.5 0.5 0
0.625 0.5 0
0.625 0.375 0
0.75 0.375 0
0.625 0.5 0
0.75 0.5 0
0.75 0.25 0
0.875 0.25 0
0.75 0.375 0
0.875 0.375 0
0.875 0.25 0
1 0.25 0
0.875 0.375 0
1 0.375 0
0.75 0.375 0
0.875 0.375 0
0.75 0.5 0
0.875 0.5 0
0.875 0.375 0
1 0.375 0
0.875 0.5 0
1 0.5 0
0 0.5 0
0.125 0.5 0
0 0.625 0
0.125 0.625 0
0.125 0.5 0
0.25 0.5 0
0.125 0.625 0
0.25 0.625 0
0 0.625 0
0.125 0.625 0
0 0.75 0
0.125 0.75 0
0.125 0.625 0
0.25 0.625 0
0.125 0.75 0
0.25 0.75 0
0.25 0.5 0
0.375 0.5 0
0.25 0.625 0
0.375 0.625 0
0.375 0.5 0
0.5 0.5 0
0.375 0.625 0
0.5 0.625 0
0.25 0.625 0
0.375 0.625 0
0.25 0.75 0
0.375 0.75 0
0.375 0.625 0
0.5 0.625 0
0.375 0.75 0
0.5 0.75 0
0 0.75 0
0.125 0.75 0
0 0.875 0
0.125 0.875 0
0.125 0.75 0
0.25 0.75 0
0.125 0.875 0
0.25 0.875 0
0 0.875 0
0.125 0.875 0
0 1 0
0.125 1 0
0.125 0.875 0
0.25 0.875 0
0.125 1 0
0.25 1 0
0.25 0.75 0
0.375 0.75 0
0.25 0.875 0
0.375 0.875 0
0.375 0.75 0
0.5 0.75 0
0.375 0.875 0
0.5 0.875 0
0.25 0.875 0
0.375 0.875 0
0.25 1 0
0.375 1 0
0.375 0.875 0
0.5 0.875 0
0.375 1 0
0.5 1 0
0.5 0.5 0
0.625 0.5 0
0.5 0.625 0
0.625 0.625 0
0.625 0.5 0
0.75 0.5 0
0.625 0.625 0
0.75 0.625 0
0.5 0.625 0
0.625 0.625 0
0.5 0.75 0
0.625 0.75 0
0.625 0.625 0
0.75 0.625 0
0.625 0.75 0
0.75 0.75 0
0.75 0.5 0
0.875 0.5 0
0.75 0.625 0
0.875 0.625 0
0.875 0.5 0
1 0.5 0
0.875 0.625 0
1 0.625 0
0.75 0.625 0
0.875 0.625 0
0.75 0.75 0
0.875 0.75 0
0.875 0.625 0
1 0.625 0
0.875 0.75 0
1 0.75 0
0.5 0.75 0
0.625 0.75 0
0.5 0.875 0
0.625 0.875 0
0.625 0.75 0
0.75 0.75 0
0.625 0.875 0
0.75 0.875 0
0.5 0.875 0
0.625 0.875 0
0.5 1 0
0.625 1 0
0.625 0.875 0
0.75 0.875 0
0.625 1 0
0.75 1 0
0.75 0.75 0
0.875 0.75 0
0.75 0.875 0
0.875 0.875 0
0.875 0.75 0
1 0.75 0
0.875 0.875 0
1 0.875 0
0.75 0.875 0
0.875 0.875 0
0.75 1 0
0.875 1 0
0.875 0.875 0
1 0.875 0
0.875 1 0
1 1 0

CELLS 64 320
4	0	1	3	2
4	4	5	7	6
4	8	9	11	10
4	12	13	15	14
4	16	17	19	18
4	20	21	23	22
4	24	25	27	26
4	28	29	31	30
4	32	33	35	34
4	36	37	39	38
4	40	41	43	42
4	44	45	47	46
4	48	49	51	50
4	52	53	55	54
4	56	57	59	58
4	60	61	63	62
4	64	65	67	66
4	68	69	71	70
4	72	73	75	74
4	76	77	79	78
4	80	81	83	82
4	84	85	87	86
4	88	89	91	90
4	92	93	95	94
4	96	97	99	98
4	100	101	103	102
4	104	105	107	106
4	108	109	111	110
4	112	113	115	114
4	116	117	119	118
4	120	121	123	122
4	124	125	127	126
4	128	129	131	130
4	132	133	135	134
4	136	137	139	138
4	140	141	143	142
4	144	145	147	146
4	148	149	151	150
4	152	153	155	154
4	156	157	159	158
4	160	161	163	162
4	164	165	167	166
4	168	169	171	170
4	172	173	175	174
4	176	177	179	178
4	180	181	183	182
4	184	185	187	186
4	188	189	191	190
4	192	193	195	194
4	196	197	199	198
4	200	201	203	202
4	204	205	207	206
4	208	209	211	210
4	212	213	215	214
4	216	217	219	218
4	220	221	223	222
4	224	225	227	226
4	228	229	231	230
4	232	233	235	234
4	236	237	239	238
4	240	241	243	242
4	244	245	247	246
4	248	249	251	250
4	252	253	255	254

CELL_TYPES 64
 9 9 9 9 9 9 9 9 9 9 9 9 9 9 9 9 9 9 9 9 9 9 9 9 9 9 9 9 9 9 9 9 9 9 9 9 9 9 9 9 9 9 9 9 9 9 9 9 9 9 9 9 9 9 9 9 9 9 9 9 9 9 9 9
POINT_DATA 256
SCALARS u double 1
LOOKUP_TABLE default
-2.14106e-08 -1.82031e-08 0.124675 0.141275 -2.03639e-08 -2.32874e-08 0.141275 0.160085 0.124675 0.141275 0.247404 0.280345 0.141275 0.160085 0.280345 0.317673 -2.26007e-08 -2.70594e-08 0.160086 0.181401 -2.56818e-08 -3.07486e-08 0.181401 0.205554 0.160085 0.181401 0.317673 0.359971 0.181401 0.205554 0.359971 0.4079 0.247404 0.280345 0.366273 0.415041 0.280345 0.317673 0.415041 0.470303 0.366272 0.415041 0.479426 0.54326 0.415041 0.470303 0.54326 0.615594 0.317673 0.35997 0.470303 0.532923 0.359971 0.4079 0.532923 0.603881 0.470303 0.532923 0.615595 0.69756 0.532923 0.603881 0.69756 0.790439 -2.92338e-08 -3.47644e-08 0.205554 0.232923 -3.32621e-08 -3.92638e-08 0.232923 0.263936 0.205554 0.232923 0.4079 0.462211 0.232923 0.263936 0.462211 0.523754 -3.77504e-08 -4.45714e-08 0.263936 0.299079 -4.4078e-08 -4.52718e-08 0.299079 0.338901 0.263936 0.299079 0.523754 0.593491 0.299079 0.338901 0.593491 0.672514 0.4079 0.462211 0.603881 0.684287 0.462211 0.523754 0.684287 0.775399 0.603881 0.684287 0.790439 0.895685 0.684287 0.775398 0.895685 1.01494 0.523754 0.593491 0.775399 0.878642 0.593491 0.672513 0.878642 0.995632 0.775399 0.878642 1.01494 1.15008 0.878642 0.995632 1.15008 1.30321 0.479425 0.54326 0.585097 0.663002 0.54326 0.615594 0.663002 0.75128 0.585097 0.663002 0.681639 0.772398 0.663002 0.751279 0.772398 0.875241 0.615594 0.69756 0.75128 0.851311 0.69756 0.790439 0.851312 0.964662 0.75128 0.851311 0.875242 0.991778 0.851311 0.964662 0.991779 1.12383 0.681639 0.772397 0.767543 0.86974 0.772398 0.875241 0.869741 0.985545 0.767543 0.86974 0.841471 0.953511 0.86974 0.985545 0.953512 1.08047 0.875241 0.991778 0.985545 1.11677 0.991778 1.12383 1.11677 1.26546 0.985545 1.11677 1.08047 1.22433 1.11677 1.26546 1.22433 1.38735 0.790439 0.895684 0.964662 1.09311 0.895685 1.01494 1.09311 1.23865 0.964662 1.0931 1.12383 1.27347 1.09311 1.23865 1.27347 1.44303 1.01494 1.15008 1.23865 1.40358 1.15008 1.30321 1.40358 1.59046 1.23865 1.40357 1.44303 1.63517 1.40357 1.59046 1.63517 1.85289 1.12383 1.27347 1.26547 1.43396 1.27347 1.44303 1.43396 1.62489 1.26546 1.43396 1.38735 1.57207 1.43396 1.62489 1.57207 1.78139 1.44303 1.63517 1.62489 1.84124 1.63517 1.85289 1.84124 2.0864 1.62489 1.84124 1.78139 2.01858 1.84124 2.0864 2.01858 2.28735 
